                               Psi4 1.2a1.dev547

  ==> Input File <==

--------------------------------------------------------------------------
memory 4 gb

molecule h2o2 {
 O     -0.028962160801    -0.694396279686    -0.049338350190
 O      0.028962160801     0.694396279686    -0.049338350190
 H      0.350498145881    -0.910645626300     0.783035421467
 H     -0.350498145881     0.910645626300     0.783035421467
noreorient
symmetry c1
}

set scf{
    e_convergence 1e-13
    d_convergence 1e-13

}
set {
  basis aug-cc-pvdz
  print 3
  r_convergence 1e-10
  #omega [589,'nm']
  #diis 'false'
}

properties('ccsd', properties=['polarizability'])
--------------------------------------------------------------------------

    Molecular point group: c1

    Geometry (in Angstrom), charge = 0, multiplicity = 1:

       Center              X                  Y                   Z               Mass
    ------------   -----------------  -----------------  -----------------  -----------------
           O         -0.028962160801    -0.694396279686    -0.049338350190    15.994914619560
           O          0.028962160801     0.694396279686    -0.049338350190    15.994914619560
           H          0.350498145881    -0.910645626300     0.783035421467     1.007825032070
           H         -0.350498145881     0.910645626300     0.783035421467     1.007825032070

  Charge       = 0
  Multiplicity = 1

    Orbital Energies (a.u.)
    -----------------------

    Doubly Occupied:

       1A    -20.637656     2A    -20.637321     3A     -1.520298
       4A     -1.219670     5A     -0.783972     6A     -0.679838
       7A     -0.625139     8A     -0.545165     9A     -0.467526

  @RHF Final Energy:  -150.79742626502173

   => Energetics <=

    Nuclear Repulsion Energy =             38.2539683806754880
    One-Electron Energy =                -283.8696156389704015
    Two-Electron Energy =                  94.8182209932732150
    Total Energy =                       -150.7974262650217270
      * MP2 total energy                      = -151.210840841805179
      * CCSD total energy                     = -151.223004721769939
*** Psi4 exiting successfully. Buy a developer a beer!
