                               Psi4 1.2a1.dev194

  ==> Input File <==

--------------------------------------------------------------------------
memory 8 gb

molecule h2o2 {
 O     -0.028962160801    -0.694396279686    -0.049338350190
 O      0.028962160801     0.694396279686    -0.049338350190
 H      0.350498145881    -0.910645626300     0.783035421467
 H     -0.350498145881     0.910645626300     0.783035421467
noreorient
symmetry c1
}

set scf{
    e_convergence 1e-9
    d_convergence 1e-9

}
set {
  basis aug-cc-pvqz
  print 3
  r_convergence 1e-7
  omega [589,'nm']
  gauge both
  #diis 'false'
}

#properties('ccsd', properties=['rotation'])
energy('scf')
--------------------------------------------------------------------------

    Molecular point group: c1

    Geometry (in Angstrom), charge = 0, multiplicity = 1:

       Center              X                  Y                   Z               Mass
    ------------   -----------------  -----------------  -----------------  -----------------
           O         -0.028962160801    -0.694396279686    -0.049338350190    15.994914619560
           O          0.028962160801     0.694396279686    -0.049338350190    15.994914619560
           H          0.350498145881    -0.910645626300     0.783035421467     1.007825032070
           H         -0.350498145881     0.910645626300     0.783035421467     1.007825032070

  Charge       = 0
  Multiplicity = 1

    Orbital Energies (a.u.)
    -----------------------

    Doubly Occupied:

       1A    -20.626590     2A    -20.626248     3A     -1.514174
       4A     -1.214304     5A     -0.781408     6A     -0.679261
       7A     -0.623156     8A     -0.544264     9A     -0.467788

  @DF-RHF Final Energy:  -150.84623284166437

   => Energetics <=

    Nuclear Repulsion Energy =             38.2539683806754880
    One-Electron Energy =                -284.0460158085834337
    Two-Electron Energy =                  94.9458145862435856
    Total Energy =                       -150.8462328416643743
*** Psi4 exiting successfully. Buy a developer a beer!
